13
Coordinates from ORCA-job orca Relaxed Surface Scan Step 1
  C      -1.857855      0.506377     -0.766375
  C      -0.533574     -0.304485     -0.911156
  C       0.536875      0.223998      0.030849
  H       0.724566      1.284373     -0.148792
  H       1.477792     -0.310098     -0.100249
  H       0.228442      0.122149      1.074997
  O      -0.742667     -1.687942     -0.760542
  H      -0.168195     -0.196431     -1.936242
  H      -1.123100     -1.843170      0.109170
  O      -2.983981     -0.290883     -0.517590
  H      -1.991336      1.141050     -1.653077
  H      -1.785366      1.185461      0.086696
  H      -3.056417     -0.940125     -1.221987
>
13
Coordinates from ORCA-job orca Relaxed Surface Scan Step 2
  C      -1.855685      0.522505     -0.802368
  C      -0.521892     -0.275944     -0.942016
  C       0.516128      0.199098      0.063763
  H       0.735415      1.259668     -0.071153
  H       1.450388     -0.352445     -0.042300
  H       0.158649      0.070932      1.089580
  O      -0.737325     -1.664604     -0.853223
  H      -0.123038     -0.118976     -1.947434
  H      -1.077338     -1.855584      0.026174
  O      -2.937326     -0.272007     -0.393906
  H      -2.072025      1.039161     -1.747246
  H      -1.749219      1.300186     -0.043244
  H      -3.061547     -0.961718     -1.050928
>
13
Coordinates from ORCA-job orca Relaxed Surface Scan Step 3
  C      -1.851156      0.533721     -0.837293
  C      -0.512180     -0.248510     -0.970323
  C       0.489622      0.174268      0.094463
  H       0.736935      1.232982      0.003243
  H       1.416240     -0.394357      0.012237
  H       0.083757      0.023339      1.099158
  O      -0.731402     -1.640442     -0.945273
  H      -0.081966     -0.041846     -1.953413
  H      -1.021203     -1.872771     -0.058012
  O      -2.880692     -0.237620     -0.275340
  H      -2.144954      0.925861     -1.820339
  H      -1.719752      1.399342     -0.184905
  H      -3.058064     -0.963694     -0.878504
>
13
Coordinates from ORCA-job orca Relaxed Surface Scan Step 4
  C      -1.844106      0.539250     -0.871750
  C      -0.502536     -0.223745     -0.995295
  C       0.459939      0.150737      0.123152
  H       0.723703      1.208225      0.079688
  H       1.382558     -0.426821      0.058320
  H       0.010998     -0.029586      1.104280
  O      -0.721006     -1.616910     -1.033117
  H      -0.043238      0.031654     -1.953786
  H      -0.962203     -1.894243     -0.144614
  O      -2.814786     -0.188473     -0.163807
  H      -2.208196      0.802449     -1.874028
  H      -1.697082      1.479640     -0.336612
  H      -3.058861     -0.941905     -0.706733
>
13
Coordinates from ORCA-job orca Relaxed Surface Scan Step 5
  C      -1.838257      0.543322     -0.906805
  C      -0.496331     -0.202687     -1.014073
  C       0.427141      0.126795      0.150213
  H       0.692377      1.184483      0.158105
  H       1.351889     -0.448311      0.092126
  H      -0.054675     -0.092865      1.107025
  O      -0.712884     -1.594462     -1.115651
  H      -0.008978      0.097390     -1.946213
  H      -0.893584     -1.924465     -0.231311
  O      -2.750205     -0.119085     -0.066667
  H      -2.258760      0.679868     -1.912327
  H      -1.683671      1.543001     -0.495229
  H      -3.048879     -0.902711     -0.533493
>
13
Coordinates from ORCA-job orca Relaxed Surface Scan Step 6
  C      -1.862108      0.595822     -0.982750
  C      -0.564600     -0.209940     -0.987754
  C       0.293937      0.079834      0.234556
  H       0.624229      1.119100      0.239531
  H       1.195564     -0.538621      0.248847
  H      -0.260884     -0.101558      1.155188
  O      -0.955838     -1.569251     -1.036409
  H      -0.000442      0.068396     -1.890273
  H      -0.200616     -2.121988     -0.826706
  O      -2.760039      0.164901     -0.000003
  H      -2.310298      0.546196     -1.986232
  H      -1.634570      1.646365     -0.790015
  H      -2.839150     -0.788981     -0.092280
>
13
Coordinates from ORCA-job orca Relaxed Surface Scan Step 7
  C      -1.858900      0.580497     -1.006592
  C      -0.554137     -0.204899     -0.995043
  C       0.269983      0.055969      0.256128
  H       0.561774      1.104885      0.316988
  H       1.192754     -0.530367      0.253941
  H      -0.290634     -0.189134      1.157749
  O      -0.919725     -1.567231     -1.113668
  H       0.028630      0.117949     -1.871720
  H      -0.162306     -2.114746     -0.897482
  O      -2.698866      0.256588      0.066670
  H      -2.354379      0.425134     -1.975718
  H      -1.633584      1.646735     -0.932828
  H      -2.855424     -0.691107      0.027273
>
13
Coordinates from ORCA-job orca Relaxed Surface Scan Step 8
  C      -1.859454      0.562487     -1.027727
  C      -0.545371     -0.204551     -0.999165
  C       0.246785      0.029129      0.276758
  H       0.488164      1.085812      0.395346
  H       1.194903     -0.514484      0.255567
  H      -0.309784     -0.286392      1.158312
  O      -0.875619     -1.568182     -1.187934
  H       0.052791      0.161823     -1.848816
  H      -0.110908     -2.106665     -0.973938
  O      -2.647563      0.362276      0.114913
  H      -2.395334      0.308562     -1.952574
  H      -1.638244      1.631289     -1.072357
  H      -2.875180     -0.570831      0.147314
>
13
Coordinates from ORCA-job orca Relaxed Surface Scan Step 9
  C      -1.863278      0.543195     -1.046545
  C      -0.537424     -0.207011     -1.003139
  C       0.221685     -0.000772      0.296837
  H       0.405649      1.058687      0.476542
  H       1.195877     -0.494838      0.260545
  H      -0.326965     -0.391142      1.152827
  O      -0.826526     -1.569248     -1.258028
  H       0.075093      0.200868     -1.823414
  H      -0.048073     -2.093950     -1.059109
  O      -2.600288      0.479681      0.146300
  H      -2.437491      0.193501     -1.914535
  H      -1.651028      1.601676     -1.212415
  H      -2.882045     -0.430374      0.269833
>
13
Coordinates from ORCA-job orca Relaxed Surface Scan Step 10
  C      -1.871686      0.523070     -1.064543
  C      -0.529918     -0.207978     -1.006385
  C       0.192471     -0.032701      0.318910
  H       0.330579      1.022451      0.554319
  H       1.184947     -0.488320      0.279366
  H      -0.354510     -0.486488      1.144420
  O      -0.777316     -1.565481     -1.322347
  H       0.098714      0.239038     -1.793070
  H       0.023379     -2.069972     -1.162463
  O      -2.555536      0.602690      0.159518
  H      -2.480722      0.075450     -1.860153
  H      -1.680954      1.557830     -1.356307
  H      -2.854264     -0.279314      0.394435
>
13
Coordinates from ORCA-job orca Relaxed Surface Scan Step 11
  C      -1.883739      0.499701     -1.077940
  C      -0.521917     -0.206966     -1.003842
  C       0.162551     -0.066051      0.345498
  H       0.278002      0.981795      0.620870
  H       1.162014     -0.506383      0.314216
  H      -0.393582     -0.559510      1.142016
  O      -0.728565     -1.557032     -1.375582
  H       0.121736      0.277646     -1.754682
  H       0.105533     -2.026575     -1.303021
  O      -2.513687      0.726373      0.156972
  H      -2.520753     -0.049549     -1.781972
  H      -1.729414      1.493268     -1.502719
  H      -2.812994     -0.116444      0.505887
>
13
Coordinates from ORCA-job orca Relaxed Surface Scan Step 12
  C      -1.896916      0.476522     -1.090179
  C      -0.512239     -0.199015     -1.005706
  C       0.131088     -0.102617      0.368418
  H       0.225657      0.933175      0.691588
  H       1.135907     -0.530976      0.347245
  H      -0.437812     -0.640107      1.127488
  O      -0.678246     -1.538142     -1.431878
  H       0.146202      0.326241     -1.714239
  H       0.177889     -1.972192     -1.417501
  O      -2.468970      0.847504      0.137738
  H      -2.555757     -0.172227     -1.679638
  H      -1.796287      1.408612     -1.648079
  H      -2.745330      0.053498      0.600441
>
13
Coordinates from ORCA-job orca Relaxed Surface Scan Step 13
  C      -1.909123      0.452151     -1.098981
  C      -0.502056     -0.185737     -1.008400
  C       0.099040     -0.142145      0.388401
  H       0.173408      0.878078      0.761651
  H       1.108266     -0.560204      0.378571
  H      -0.483935     -0.724229      1.103835
  O      -0.628887     -1.510388     -1.488151
  H       0.167620      0.383127     -1.670306
  H       0.243817     -1.908940     -1.519667
  O      -2.425113      0.965285      0.101829
  H      -2.579434     -0.288553     -1.551347
  H      -1.873900      1.299752     -1.784062
  H      -2.664518      0.232077      0.672325
>
13
Coordinates from ORCA-job orca Relaxed Surface Scan Step 14
  C      -1.920052      0.424874     -1.104147
  C      -0.493873     -0.169853     -1.010516
  C       0.064570     -0.183325      0.405500
  H       0.118418      0.819209      0.827132
  H       1.077899     -0.591086      0.408889
  H      -0.532911     -0.807946      1.072950
  O      -0.580896     -1.476456     -1.543782
  H       0.181096      0.444658     -1.623986
  H       0.305259     -1.838701     -1.612150
  O      -2.382685      1.075402      0.050835
  H      -2.590719     -0.389604     -1.405564
  H      -1.954844      1.168839     -1.900272
  H      -2.566078      0.414263      0.720809
>
13
Coordinates from ORCA-job orca Relaxed Surface Scan Step 15
  C      -1.930124      0.393160     -1.102789
  C      -0.488215     -0.153256     -1.011184
  C       0.031917     -0.225281      0.418272
  H       0.074256      0.759077      0.882637
  H       1.045757     -0.631066      0.435172
  H      -0.583932     -0.880672      1.039059
  O      -0.532657     -1.437024     -1.600388
  H       0.182503      0.510088     -1.576567
  H       0.365006     -1.763618     -1.691859
  O      -2.344188      1.172401     -0.010904
  H      -2.590409     -0.471078     -1.251707
  H      -2.032212      1.022768     -1.987366
  H      -2.472515      0.594775      0.743323
>
13
Coordinates from ORCA-job orca Relaxed Surface Scan Step 16
  C      -1.940147      0.359443     -1.095335
  C      -0.486439     -0.137801     -1.008709
  C       0.004150     -0.268391      0.427382
  H       0.038121      0.696617      0.932505
  H       1.018492     -0.672301      0.452643
  H      -0.626462     -0.949287      1.004803
  O      -0.486910     -1.392078     -1.658599
  H       0.170525      0.575846     -1.527287
  H       0.420254     -1.689849     -1.752757
  O      -2.315238      1.256350     -0.082909
  H      -2.583689     -0.530759     -1.101732
  H      -2.100241      0.870720     -2.045482
  H      -2.387231      0.771764      0.741175
>
13
Coordinates from ORCA-job orca Relaxed Surface Scan Step 17
  C      -1.950109      0.327017     -1.081899
  C      -0.488638     -0.127985     -1.002567
  C      -0.015819     -0.313048      0.433623
  H      -0.000178      0.631178      0.978348
  H       1.004236     -0.702281      0.460310
  H      -0.647682     -1.024123      0.971598
  O      -0.444928     -1.345989     -1.715144
  H       0.147599      0.634134     -1.476654
  H       0.469963     -1.622258     -1.797338
  O      -2.287275      1.331562     -0.161347
  H      -2.580565     -0.564984     -0.960422
  H      -2.155643      0.724527     -2.076966
  H      -2.325775      0.942524      0.714158
>
13
Coordinates from ORCA-job orca Relaxed Surface Scan Step 18
  C      -1.961106      0.299383     -1.064000
  C      -0.493081     -0.120167     -0.995446
  C      -0.029450     -0.360355      0.435523
  H      -0.054030      0.555205      1.027537
  H       1.004134     -0.712585      0.460565
  H      -0.645254     -1.116956      0.927208
  O      -0.406187     -1.296008     -1.770226
  H       0.118587      0.687154     -1.425659
  H       0.512658     -1.566870     -1.817986
  O      -2.262618      1.401627     -0.248257
  H      -2.578858     -0.577063     -0.820969
  H      -2.206572      0.584524     -2.088339
  H      -2.273039      1.112385      0.665748
>
13
Coordinates from ORCA-job orca Relaxed Surface Scan Step 19
  C      -1.972762      0.276637     -1.041315
  C      -0.498188     -0.114116     -0.985072
  C      -0.035874     -0.410204      0.435272
  H      -0.116445      0.469075      1.076105
  H       1.014865     -0.707949      0.459315
  H      -0.621287     -1.219625      0.876350
  O      -0.371650     -1.240940     -1.823476
  H       0.087448      0.733985     -1.371183
  H       0.545233     -1.522591     -1.825784
  O      -2.250510      1.463114     -0.342738
  H      -2.579000     -0.570109     -0.687918
  H      -2.250797      0.452113     -2.082108
  H      -2.225850      1.280884      0.598250
>
13
Coordinates from ORCA-job orca Relaxed Surface Scan Step 20
  C      -1.982665      0.258545     -1.013633
  C      -0.501037     -0.108182     -0.970465
  C      -0.036060     -0.461237      0.435056
  H      -0.162011      0.380055      1.118738
  H       1.026192     -0.715448      0.457785
  H      -0.594924     -1.312410      0.828642
  O      -0.339533     -1.181015     -1.871101
  H       0.060015      0.775022     -1.311822
  H       0.572652     -1.476139     -1.839309
  O      -2.249539      1.515061     -0.443966
  H      -2.575134     -0.546868     -0.555890
  H      -2.289736      0.321973     -2.059295
  H      -2.203034      1.440917      0.510960
>
13
Coordinates from ORCA-job orca Relaxed Surface Scan Step 21
  C      -1.993596      0.244205     -0.982648
  C      -0.503767     -0.101479     -0.951767
  C      -0.035387     -0.514235      0.435786
  H      -0.205140      0.282416      1.162657
  H       1.035960     -0.727197      0.458456
  H      -0.565521     -1.404905      0.777702
  O      -0.310387     -1.118838     -1.909337
  H       0.035928      0.811054     -1.246913
  H       0.600233     -1.417224     -1.862676
  O      -2.261779      1.555816     -0.554700
  H      -2.566522     -0.507318     -0.420813
  H      -2.329587      0.188257     -2.019591
  H      -2.175248      1.599721      0.399542
>
13
Coordinates from ORCA-job orca Relaxed Surface Scan Step 22
  C      -2.004093      0.234030     -0.949333
  C      -0.506030     -0.094291     -0.930631
  C      -0.034663     -0.567430      0.436219
  H      -0.241859      0.183140      1.201966
  H       1.042948     -0.745835      0.459898
  H      -0.538746     -1.490907      0.726325
  O      -0.283690     -1.052907     -1.941475
  H       0.017394      0.841866     -1.177158
  H       0.627479     -1.349272     -1.890519
  O      -2.279254      1.584007     -0.669473
  H      -2.553403     -0.449654     -0.286738
  H      -2.370552      0.055933     -1.961376
  H      -2.150346      1.741595      0.267995
>
13
Coordinates from ORCA-job orca Relaxed Surface Scan Step 23
  C      -2.013248      0.227796     -0.913245
  C      -0.507134     -0.083326     -0.905181
  C      -0.034851     -0.622903      0.437048
  H      -0.263589      0.078544      1.242329
  H       1.045720     -0.782836      0.457703
  H      -0.522292     -1.570709      0.672335
  O      -0.261808     -0.985690     -1.961802
  H       0.007884      0.869656     -1.100184
  H       0.657372     -1.259062     -1.927044
  O      -2.307143      1.597234     -0.793124
  H      -2.530658     -0.372136     -0.151389
  H      -2.411310     -0.080487     -1.880533
  H      -2.133758      1.874193      0.108786
>
13
Coordinates from ORCA-job orca Relaxed Surface Scan Step 24
  C      -2.022415      0.221474     -0.874796
  C      -0.509084     -0.069233     -0.875112
  C      -0.038504     -0.679615      0.437917
  H      -0.265154     -0.021150      1.278887
  H       1.041578     -0.843843      0.447398
  H      -0.525953     -1.638281      0.624302
  O      -0.242626     -0.914400     -1.973400
  H       0.001341      0.896626     -1.012156
  H       0.690293     -1.139410     -1.969958
  O      -2.344478      1.588827     -0.918244
  H      -2.503399     -0.280275     -0.023309
  H      -2.447562     -0.218049     -1.777395
  H      -2.108851      1.987601     -0.078436
>
13
Coordinates from ORCA-job orca Relaxed Surface Scan Step 25
  C      -2.027842      0.217431     -0.833002
  C      -0.510500     -0.052156     -0.843591
  C      -0.044712     -0.735567      0.435887
  H      -0.270988     -0.125845      1.312447
  H       1.034582     -0.904701      0.435179
  H      -0.534055     -1.702556      0.565691
  O      -0.227420     -0.840372     -1.979365
  H      -0.002334      0.922048     -0.918936
  H       0.716862     -1.009151     -2.009528
  O      -2.379431      1.561937     -1.040924
  H      -2.467828     -0.167749      0.097907
  H      -2.478401     -0.348956     -1.648442
  H      -2.082748      2.075910     -0.287621
>
13
Coordinates from ORCA-job orca Relaxed Surface Scan Step 26
  C      -2.024381      0.218033     -0.790915
  C      -0.507416     -0.034408     -0.811617
  C      -0.053032     -0.789866      0.432010
  H      -0.267963     -0.222952      1.339379
  H       1.022390     -0.980258      0.418384
  H      -0.559950     -1.753247      0.510397
  O      -0.213969     -0.766902     -1.981288
  H       0.000508      0.943058     -0.825777
  H       0.737516     -0.871845     -2.049431
  O      -2.404761      1.518601     -1.161492
  H      -2.421815     -0.037408      0.202028
  H      -2.495137     -0.463062     -1.500634
  H      -2.086803      2.130528     -0.495344
>
13
Coordinates from ORCA-job orca Relaxed Surface Scan Step 27
  C      -2.019255      0.222694     -0.749117
  C      -0.505420     -0.014291     -0.780484
  C      -0.061419     -0.839136      0.423119
  H      -0.264328     -0.317542      1.359761
  H       1.010445     -1.046523      0.394856
  H      -0.583478     -1.797227      0.451395
  O      -0.203823     -0.682459     -1.984718
  H       0.000393      0.964068     -0.731538
  H       0.749289     -0.758099     -2.066754
  O      -2.428889      1.461198     -1.267942
  H      -2.376021      0.094153      0.283422
  H      -2.503518     -0.551438     -1.346114
  H      -2.088792      2.154876     -0.700185
>
13
Coordinates from ORCA-job orca Relaxed Surface Scan Step 28
  C      -2.014991      0.231985     -0.705774
  C      -0.505801      0.002686     -0.748536
  C      -0.068264     -0.885658      0.411546
  H      -0.272214     -0.414786      1.374359
  H       1.003201     -1.093137      0.374475
  H      -0.591018     -1.843477      0.386344
  O      -0.200472     -0.596568     -1.986116
  H      -0.002816      0.978833     -0.640771
  H       0.753122     -0.655967     -2.074863
  O      -2.447460      1.394964     -1.360239
  H      -2.335947      0.229525      0.346547
  H      -2.510387     -0.612550     -1.188279
  H      -2.081767      2.154423     -0.902993
>
13
Coordinates from ORCA-job orca Relaxed Surface Scan Step 29
  C      -2.015971      0.246823     -0.657677
  C      -0.510953      0.019589     -0.715753
  C      -0.072728     -0.928009      0.395382
  H      -0.295781     -0.519321      1.381932
  H       1.002987     -1.112369      0.358916
  H      -0.576216     -1.892188      0.305841
  O      -0.204568     -0.501892     -1.985691
  H      -0.009703      0.990305     -0.551316
  H       0.748503     -0.575306     -2.068628
  O      -2.470874      1.324302     -1.429373
  H      -2.302121      0.359623      0.398878
  H      -2.522350     -0.646594     -1.029424
  H      -2.045039      2.125310     -1.117390
>
13
Coordinates from ORCA-job orca Relaxed Surface Scan Step 30
  C      -2.015669      0.269448     -0.609868
  C      -0.513187      0.039246     -0.684275
  C      -0.075661     -0.965716      0.373947
  H      -0.330012     -0.625642      1.378721
  H       1.005183     -1.120217      0.351492
  H      -0.552814     -1.933624      0.211607
  O      -0.207738     -0.399235     -1.984343
  H      -0.010980      0.999982     -0.466255
  H       0.740727     -0.528816     -2.050361
  O      -2.495148      1.252703     -1.483171
  H      -2.269135      0.490381      0.437910
  H      -2.530262     -0.658133     -0.872003
  H      -2.020122      2.069897     -1.317702
>
13
Coordinates from ORCA-job orca Relaxed Surface Scan Step 31
  C      -2.011798      0.297108     -0.563874
  C      -0.510212      0.058444     -0.653427
  C      -0.081068     -1.001991      0.351232
  H      -0.364539     -0.726261      1.367906
  H       1.002443     -1.138361      0.347018
  H      -0.540592     -1.963946      0.118841
  O      -0.204067     -0.298148     -1.977806
  H      -0.001911      1.003067     -0.384224
  H       0.737478     -0.474083     -2.036215
  O      -2.521315      1.175141     -1.525585
  H      -2.234202      0.623037      0.463496
  H      -2.533340     -0.652019     -0.713450
  H      -2.011694      1.988285     -1.508215
>
13
Coordinates from ORCA-job orca Relaxed Surface Scan Step 32
  C      -2.009861      0.329302     -0.513926
  C      -0.506857      0.078640     -0.618220
  C      -0.089855     -1.039341      0.324940
  H      -0.392852     -0.823313      1.350682
  H       0.993921     -1.173121      0.332866
  H      -0.544899     -1.985503      0.028587
  O      -0.199523     -0.193483     -1.963365
  H       0.010502      1.001091     -0.297239
  H       0.739508     -0.381134     -2.026787
  O      -2.552987      1.096006     -1.548499
  H      -2.202139      0.760589      0.480156
  H      -2.535382     -0.629660     -0.545697
  H      -1.984389      1.850200     -1.717799
>
13
Coordinates from ORCA-job orca Relaxed Surface Scan Step 33
  C      -2.009526      0.378682     -0.447375
  C      -0.506626      0.099707     -0.571179
  C      -0.108897     -1.084524      0.292837
  H      -0.423104     -0.936254      1.327310
  H       0.973253     -1.229603      0.302593
  H      -0.572068     -2.001149     -0.074280
  O      -0.204730     -0.085463     -1.935750
  H       0.032819      0.988815     -0.202427
  H       0.746084     -0.177873     -2.025184
  O      -2.583041      1.037634     -1.538779
  H      -2.164677      0.919505      0.496937
  H      -2.541508     -0.574447     -0.349245
  H      -1.912794      1.555243     -1.989759
>
13
Coordinates from ORCA-job orca Relaxed Surface Scan Step 34
  C      -1.993068      0.478746     -0.377620
  C      -0.484309      0.158262     -0.491702
  C      -0.141989     -1.133278      0.225995
  H      -0.438899     -1.078536      1.274720
  H       0.930127     -1.339120      0.205434
  H      -0.661334     -1.979102     -0.226135
  O      -0.175290      0.115770     -1.871196
  H       0.080358      0.978105     -0.024718
  H       0.776331      0.090271     -1.984252
  O      -2.533550      1.071968     -1.518818
  H      -2.149463      1.139268      0.479445
  H      -2.525999     -0.458181     -0.149341
  H      -1.957731      0.846100     -2.256114
>
13
Coordinates from ORCA-job orca Relaxed Surface Scan Step 35
  C      -1.996325      0.501607     -0.363877
  C      -0.480926      0.179428     -0.470077
  C      -0.149997     -1.146654      0.189264
  H      -0.442190     -1.136005      1.240482
  H       0.920551     -1.361631      0.157220
  H      -0.679081     -1.966827     -0.297962
  O      -0.150367      0.196865     -1.844080
  H       0.080793      0.971313      0.045147
  H       0.797633      0.096701     -1.947360
  O      -2.572721      0.937455     -1.557925
  H      -2.141821      1.261721      0.409616
  H      -2.515811     -0.401382     -0.010190
  H      -1.944554      0.757684     -2.264558
>
13
Coordinates from ORCA-job orca Relaxed Surface Scan Step 36
  C      -1.998081      0.520829     -0.351817
  C      -0.477798      0.202052     -0.444408
  C      -0.156772     -1.157698      0.151275
  H      -0.446923     -1.196658      1.202138
  H       0.912199     -1.380622      0.107745
  H      -0.693650     -1.948834     -0.374355
  O      -0.124960      0.274181     -1.810903
  H       0.074373      0.966591      0.118744
  H       0.811192      0.091887     -1.911697
  O      -2.603367      0.785387     -1.581958
  H      -2.135146      1.376983      0.318223
  H      -2.503413     -0.328090      0.127316
  H      -1.932468      0.684266     -2.264603
